ls
********************************************************************************
*                       GENERAL UTILITY LATTICE PROGRAM                        *
*                                 Julian Gale                                  *
*                      Nanochemistry Research Institute                        *
*                           Department of Chemistry                            *
*                    Curtin University, Western Australia                      *
********************************************************************************
* Version = 4.4.2 * Last modified = 20th June 2016                             *
********************************************************************************
*  optimise     - perform optimisation run                                     *
*  conp         - constant pressure calculation                                *
*  phonon       - calculate phonons for final geometry                         *
*  compare      - compare initial and final structures                         *
*  nofrequency  - suppress frequency output after phonon calculation           *
********************************************************************************

  Job Started  at 17:23.38 24th September  2018                               

  Number of CPUs =     1

  Host name      = hpc0466                                 


  Total number of configurations input =   1

********************************************************************************
*  Input for Configuration =   1                                               *
********************************************************************************

  Formula = Mo2Te4                                                      

  Number of irreducible atoms/shells =       6


  Total number atoms/shells =       6

  Dimensionality = 3               :  Bulk   



  Cartesian lattice vectors (Angstroms) :

        3.484349    0.000000    0.000000
        0.000000    6.351435    0.000000
        0.000000    0.000000   20.145149

  Cell parameters (Angstroms/Degrees):

  a =       3.4843    alpha =  90.0000
  b =       6.3514    beta  =  90.0000
  c =      20.1451    gamma =  90.0000

  Initial cell volume =         445.824575 Angs**3

  Shrinking factors =      5     5     5

  Temperature of configuration =  0.000     K 

  Pressure of configuration =         0.000 GPa 

  Fractional coordinates of asymmetric unit :

--------------------------------------------------------------------------------
   No.  Atomic       x           y          z         Charge      Occupancy
        Label      (Frac)      (Frac)     (Frac)        (e)         (Frac)  
--------------------------------------------------------------------------------
      1 Mo1   c    0.000045    0.729510    0.162866     0.00000    1.000000    
      2 Mo1   c    0.500035 *  0.090741 *  0.153282 *   0.00000    1.000000    
      3 Te1   c    0.000046 *  0.338819 *  0.231585 *   0.00000    1.000000    
      4 Te1   c    0.500027 *  0.481471 *  0.084611 *   0.00000    1.000000    
      5 Te2   c    0.500048 *  0.830266 *  0.260738 *   0.00000    1.000000    
      6 Te2   c    0.000025 *  0.989864 *  0.055419 *   0.00000    1.000000    
--------------------------------------------------------------------------------


  Brillouin zone sampling points :

--------------------------------------------------------------------------------
  Point number          x          y          z            Weight
--------------------------------------------------------------------------------
        1           0.000000   0.000000   0.000000         0.0071
        2           0.000000   0.006410   0.000000         0.0071
        3           0.000000   0.012821   0.000000         0.0071
        4           0.000000   0.019231   0.000000         0.0071
        5           0.000000   0.025641   0.000000         0.0071
        6           0.000000   0.032051   0.000000         0.0071
        7           0.000000   0.038462   0.000000         0.0071
        8           0.000000   0.044872   0.000000         0.0071
        9           0.000000   0.051282   0.000000         0.0071
       10           0.000000   0.057692   0.000000         0.0071
       11           0.000000   0.064103   0.000000         0.0071
       12           0.000000   0.070513   0.000000         0.0071
       13           0.000000   0.076923   0.000000         0.0071
       14           0.000000   0.083333   0.000000         0.0071
       15           0.000000   0.089744   0.000000         0.0071
       16           0.000000   0.096154   0.000000         0.0071
       17           0.000000   0.102564   0.000000         0.0071
       18           0.000000   0.108974   0.000000         0.0071
       19           0.000000   0.115385   0.000000         0.0071
       20           0.000000   0.121795   0.000000         0.0071
       21           0.000000   0.128205   0.000000         0.0071
       22           0.000000   0.134615   0.000000         0.0071
       23           0.000000   0.141026   0.000000         0.0071
       24           0.000000   0.147436   0.000000         0.0071
       25           0.000000   0.153846   0.000000         0.0071
       26           0.000000   0.160256   0.000000         0.0071
       27           0.000000   0.166667   0.000000         0.0071
       28           0.000000   0.173077   0.000000         0.0071
       29           0.000000   0.179487   0.000000         0.0071
       30           0.000000   0.185897   0.000000         0.0071
       31           0.000000   0.192308   0.000000         0.0071
       32           0.000000   0.198718   0.000000         0.0071
       33           0.000000   0.205128   0.000000         0.0071
       34           0.000000   0.211538   0.000000         0.0071
       35           0.000000   0.217949   0.000000         0.0071
       36           0.000000   0.224359   0.000000         0.0071
       37           0.000000   0.230769   0.000000         0.0071
       38           0.000000   0.237179   0.000000         0.0071
       39           0.000000   0.243590   0.000000         0.0071
       40           0.000000   0.250000   0.000000         0.0071
       41           0.000000   0.256410   0.000000         0.0071
       42           0.000000   0.262821   0.000000         0.0071
       43           0.000000   0.269231   0.000000         0.0071
       44           0.000000   0.275641   0.000000         0.0071
       45           0.000000   0.282051   0.000000         0.0071
       46           0.000000   0.288462   0.000000         0.0071
       47           0.000000   0.294872   0.000000         0.0071
       48           0.000000   0.301282   0.000000         0.0071
       49           0.000000   0.307692   0.000000         0.0071
       50           0.000000   0.314103   0.000000         0.0071
       51           0.000000   0.320513   0.000000         0.0071
       52           0.000000   0.326923   0.000000         0.0071
       53           0.000000   0.333333   0.000000         0.0071
       54           0.000000   0.339744   0.000000         0.0071
       55           0.000000   0.346154   0.000000         0.0071
       56           0.000000   0.352564   0.000000         0.0071
       57           0.000000   0.358974   0.000000         0.0071
       58           0.000000   0.365385   0.000000         0.0071
       59           0.000000   0.371795   0.000000         0.0071
       60           0.000000   0.378205   0.000000         0.0071
       61           0.000000   0.384615   0.000000         0.0071
       62           0.000000   0.391026   0.000000         0.0071
       63           0.000000   0.397436   0.000000         0.0071
       64           0.000000   0.403846   0.000000         0.0071
       65           0.000000   0.410256   0.000000         0.0071
       66           0.000000   0.416667   0.000000         0.0071
       67           0.000000   0.423077   0.000000         0.0071
       68           0.000000   0.429487   0.000000         0.0071
       69           0.000000   0.435897   0.000000         0.0071
       70           0.000000   0.442308   0.000000         0.0071
       71           0.000000   0.448718   0.000000         0.0071
       72           0.000000   0.455128   0.000000         0.0071
       73           0.000000   0.461538   0.000000         0.0071
       74           0.000000   0.467949   0.000000         0.0071
       75           0.000000   0.474359   0.000000         0.0071
       76           0.000000   0.480769   0.000000         0.0071
       77           0.000000   0.487179   0.000000         0.0071
       78           0.000000   0.493590   0.000000         0.0071
       79           0.000000   0.500000   0.000000         0.0071
       80           0.100000   0.100000   0.100000         0.0071
       81           0.100000   0.100000   0.300000         0.0071
       82           0.100000   0.100000   0.500000         0.0071
       83           0.100000   0.100000   0.700000         0.0071
       84           0.100000   0.100000   0.900000         0.0071
       85           0.100000   0.300000   0.100000         0.0071
       86           0.100000   0.300000   0.300000         0.0071
       87           0.100000   0.300000   0.500000         0.0071
       88           0.100000   0.300000   0.700000         0.0071
       89           0.100000   0.300000   0.900000         0.0071
       90           0.100000   0.500000   0.100000         0.0071
       91           0.100000   0.500000   0.300000         0.0071
       92           0.100000   0.500000   0.500000         0.0071
       93           0.100000   0.500000   0.700000         0.0071
       94           0.100000   0.500000   0.900000         0.0071
       95           0.100000   0.700000   0.100000         0.0071
       96           0.100000   0.700000   0.300000         0.0071
       97           0.100000   0.700000   0.500000         0.0071
       98           0.100000   0.700000   0.700000         0.0071
       99           0.100000   0.700000   0.900000         0.0071
      100           0.100000   0.900000   0.100000         0.0071
      101           0.100000   0.900000   0.300000         0.0071
      102           0.100000   0.900000   0.500000         0.0071
      103           0.100000   0.900000   0.700000         0.0071
      104           0.100000   0.900000   0.900000         0.0071
      105           0.300000   0.100000   0.100000         0.0071
      106           0.300000   0.100000   0.300000         0.0071
      107           0.300000   0.100000   0.500000         0.0071
      108           0.300000   0.100000   0.700000         0.0071
      109           0.300000   0.100000   0.900000         0.0071
      110           0.300000   0.300000   0.100000         0.0071
      111           0.300000   0.300000   0.300000         0.0071
      112           0.300000   0.300000   0.500000         0.0071
      113           0.300000   0.300000   0.700000         0.0071
      114           0.300000   0.300000   0.900000         0.0071
      115           0.300000   0.500000   0.100000         0.0071
      116           0.300000   0.500000   0.300000         0.0071
      117           0.300000   0.500000   0.500000         0.0071
      118           0.300000   0.500000   0.700000         0.0071
      119           0.300000   0.500000   0.900000         0.0071
      120           0.300000   0.700000   0.100000         0.0071
      121           0.300000   0.700000   0.300000         0.0071
      122           0.300000   0.700000   0.500000         0.0071
      123           0.300000   0.700000   0.700000         0.0071
      124           0.300000   0.700000   0.900000         0.0071
      125           0.300000   0.900000   0.100000         0.0071
      126           0.300000   0.900000   0.300000         0.0071
      127           0.300000   0.900000   0.500000         0.0071
      128           0.300000   0.900000   0.700000         0.0071
      129           0.300000   0.900000   0.900000         0.0071
      130           0.500000   0.100000   0.100000         0.0035
      131           0.500000   0.100000   0.300000         0.0035
      132           0.500000   0.100000   0.500000         0.0035
      133           0.500000   0.100000   0.700000         0.0035
      134           0.500000   0.100000   0.900000         0.0035
      135           0.500000   0.300000   0.100000         0.0035
      136           0.500000   0.300000   0.300000         0.0035
      137           0.500000   0.300000   0.500000         0.0035
      138           0.500000   0.300000   0.700000         0.0035
      139           0.500000   0.300000   0.900000         0.0035
      140           0.500000   0.500000   0.100000         0.0035
      141           0.500000   0.500000   0.300000         0.0035
      142           0.500000   0.500000   0.500000         0.0035
      143           0.500000   0.500000   0.700000         0.0035
      144           0.500000   0.500000   0.900000         0.0035
      145           0.500000   0.700000   0.100000         0.0035
      146           0.500000   0.700000   0.300000         0.0035
      147           0.500000   0.700000   0.500000         0.0035
      148           0.500000   0.700000   0.700000         0.0035
      149           0.500000   0.700000   0.900000         0.0035
      150           0.500000   0.900000   0.100000         0.0035
      151           0.500000   0.900000   0.300000         0.0035
      152           0.500000   0.900000   0.500000         0.0035
      153           0.500000   0.900000   0.700000         0.0035
      154           0.500000   0.900000   0.900000         0.0035
--------------------------------------------------------------------------------


********************************************************************************
*  General input information                                                   *
********************************************************************************

  Species output for all configurations : 

--------------------------------------------------------------------------------
  Species    Type    Atomic    Atomic    Charge       Radii (Angs)     Library
                     Number     Mass       (e)     Cova   Ionic  VDW   Symbol
--------------------------------------------------------------------------------
    Mo1      Core       42      95.94   0.000000   1.470  0.000  2.190          
    Te1      Core       52     127.60   0.000000   1.470  0.000  2.200          
    Te2      Core       52     127.60   0.000000   1.470  0.000  2.200          
--------------------------------------------------------------------------------


  Lattice summation method               =    Ewald          (3-D)
                                         =    Parry          (2-D)
                                         =    Saunders et al (1-D)
  Accuracy factor for lattice sums       =   12.000


  Time limit = Infinity

  Maximum range for interatomic potentials =    100000.000000 Angstroms

  General interatomic potentials :

--------------------------------------------------------------------------------
Atom  Types   Potential         A         B         C         D     Cutoffs(Ang)
  1     2                                                            Min    Max 
--------------------------------------------------------------------------------
Te1  c Te2  c Still-Weber 2  2.95      2.11      52.8      0.00     0.000  5.500
Te1  c Te1  c Still-Weber 2  3.31      1.93      49.3      0.00     0.000  5.500
Te2  c Te2  c Still-Weber 2  3.71      1.79      50.2      0.00     0.000  5.500
Mo   c Te1  c Still-Weber 2  5.78     0.708      13.3      0.00     0.000  4.250
Mo   c Te2  c Still-Weber 2  6.29     0.308      10.0      0.00     0.000  4.050
Mo   c Mo   c Still-Weber 2  2.45      1.07      29.2      0.00     0.000  4.770
--------------------------------------------------------------------------------

  General Three-body potentials :

  Stillinger-Weber form:

--------------------------------------------------------------------------------
       Atom Types        Force Cst    Theta      Rhos           Cutoffs  
   1       2       3        (eV)                (Angs)     1-2    1-3    2-3  
--------------------------------------------------------------------------------
Mo    c Te1   c Te2   c   35.69       82.500 1.975 1.707  0.000  0.000  0.000
                                                          3.550  3.550  3.900
Mo    c Te1   c Te1   c   33.53       76.750 1.330 1.331  0.000  0.000  0.000
                                                          3.550  3.550  5.500
Mo    c Te2   c Te2   c   32.79      115.750 2.187 2.187  0.000  0.000  0.000
                                                          3.550  3.550  5.500
Te1   c Mo    c Mo    c   21.08       76.040 6.442 6.442  0.000  0.000  0.000
                                                          3.550  3.550  3.250
Te2   c Mo    c Mo    c   18.39       64.220 5.697 5.697  0.000  0.000  0.000
                                                          3.550  3.550  3.250
--------------------------------------------------------------------------------

********************************************************************************
*  Output for configuration   1                                                *
********************************************************************************


  Components of energy : 

--------------------------------------------------------------------------------
  Interatomic potentials     =         -57.29274661 eV
  Three-body potentials      =           0.13602005 eV
  Monopole - monopole (real) =           0.00000000 eV
  Monopole - monopole (recip)=           0.00000000 eV
  Monopole - monopole (total)=           0.00000000 eV
--------------------------------------------------------------------------------
  Total lattice energy       =         -57.15672656 eV
--------------------------------------------------------------------------------
  Total lattice energy       =           -5514.7504 kJ/(mole unit cells)
--------------------------------------------------------------------------------


  Number of variables =       21

  Maximum number of calculations  =          1000
  Maximum Hessian update interval =            10
  Maximum step size               =   1.000000000
  Maximum parameter tolerance     =   0.000010000
  Maximum function  tolerance     =   0.000010000
  Maximum gradient  tolerance     =   0.001000000
  Maximum gradient  component     =   0.010000000

  Symmetry not applied to optimisation

  Cell parameters to be optimised using strains

  Newton-Raphson optimiser to be used

  BFGS hessian update to be used

  Start of bulk optimisation :

  Cycle:      0 Energy:       -57.156727  Gnorm:      1.761656  CPU:    0.014
  ** Hessian calculated **
  Cycle:      1 Energy:       -57.345040  Gnorm:      4.436597  CPU:    0.016
  ** Hessian calculated **
  Cycle:      2 Energy:       -58.236168  Gnorm:      2.215839  CPU:    0.018
  ** Hessian calculated **
  Cycle:      3 Energy:       -58.982452  Gnorm:      2.000764  CPU:    0.023
  ** Hessian calculated **
  Cycle:      4 Energy:       -59.601754  Gnorm:      2.047640  CPU:    0.026
  ** Hessian calculated **
  Cycle:      5 Energy:       -61.722812  Gnorm:      0.918186  CPU:    0.029
  Cycle:      6 Energy:       -61.796092  Gnorm:      0.581008  CPU:    0.031
  Cycle:      7 Energy:       -61.848405  Gnorm:      0.514615  CPU:    0.034
  Cycle:      8 Energy:       -61.869627  Gnorm:      0.369584  CPU:    0.036
  Cycle:      9 Energy:       -61.889410  Gnorm:      0.298511  CPU:    0.038
  ** Hessian calculated **
  Cycle:     10 Energy:       -61.928308  Gnorm:      0.078850  CPU:    0.041
  Cycle:     11 Energy:       -61.929629  Gnorm:      0.019189  CPU:    0.042
  Cycle:     12 Energy:       -61.929681  Gnorm:      0.008413  CPU:    0.044
  Cycle:     13 Energy:       -61.929690  Gnorm:      0.002246  CPU:    0.045
  Cycle:     14 Energy:       -61.929692  Gnorm:      0.000942  CPU:    0.047


  **** Optimisation achieved ****


  Final energy =     -61.92969189 eV
  Final Gnorm  =       0.00027126

  Components of energy : 

--------------------------------------------------------------------------------
  Interatomic potentials     =         -62.43591047 eV
  Three-body potentials      =           0.50621858 eV
  Monopole - monopole (real) =           0.00000000 eV
  Monopole - monopole (recip)=           0.00000000 eV
  Monopole - monopole (total)=           0.00000000 eV
--------------------------------------------------------------------------------
  Total lattice energy       =         -61.92969189 eV
--------------------------------------------------------------------------------
  Total lattice energy       =           -5975.2686 kJ/(mole unit cells)
--------------------------------------------------------------------------------

  Final fractional coordinates of atoms :

--------------------------------------------------------------------------------
   No.  Atomic        x           y          z          Radius
        Label       (Frac)      (Frac)     (Frac)       (Angs) 
--------------------------------------------------------------------------------
     1  Mo1   c     0.000045    0.729510    0.162866    0.000000
     2  Mo1   c     0.494797    0.108640    0.137673    0.000000
     3  Te1   c     0.011487    0.315774    0.217794    0.000000
     4  Te1   c     0.483358    0.522383    0.082743    0.000000
     5  Te2   c     0.516976    0.856274    0.244158    0.000000
     6  Te2   c     0.977865    0.981882    0.056381    0.000000
--------------------------------------------------------------------------------

  Final Cartesian lattice vectors (Angstroms) :

        3.809824   -0.002070   -0.069844
       -0.003774    5.536318   -0.372469
       -0.403812   -1.181378   21.315281


  Final cell parameters and derivatives :

--------------------------------------------------------------------------------
       a            3.810465 Angstrom     dE/de1(xx)     0.000842 eV/strain
       b            5.548834 Angstrom     dE/de2(yy)     0.002576 eV/strain
       c           21.351813 Angstrom     dE/de3(zz)     0.000531 eV/strain
       alpha       97.019219 Degrees      dE/de4(yz)     0.000832 eV/strain
       beta        92.130593 Degrees      dE/de5(xz)    -0.000230 eV/strain
       gamma       89.999521 Degrees      dE/de6(xy)     0.000435 eV/strain
--------------------------------------------------------------------------------

  Primitive cell volume =           447.757024 Angs**3

  Density of cell =      2.604497 g/cm**3

  Non-primitive cell volume =           447.757024 Angs**3


  Final internal derivatives :

--------------------------------------------------------------------------------
   No.  Atomic          a             b             c           Radius
        Label          (eV)          (eV)          (eV)        (eV/Angs)
--------------------------------------------------------------------------------
      1 Mo1   c       0.000000      0.000000      0.000000      0.000000
      2 Mo1   c      -0.000014      0.001063      0.001453      0.000000
      3 Te1   c      -0.000030      0.001305      0.001533      0.000000
      4 Te1   c       0.000094     -0.001732     -0.003020      0.000000
      5 Te2   c      -0.000229      0.000508      0.000404      0.000000
      6 Te2   c       0.000074     -0.000274     -0.001975      0.000000
--------------------------------------------------------------------------------
  Maximum abs         0.000229      0.001732      0.003020      0.000000
--------------------------------------------------------------------------------

  Comparison of initial and final structures : 

--------------------------------------------------------------------------------
  Parameter   Initial value   Final value   Difference    Units      Percent
--------------------------------------------------------------------------------
    Volume       445.824575    447.757024     1.932449    Angs**3      0.43
    a              3.484349      3.810465     0.326116    Angstroms    9.36
    b              6.351435      5.548834    -0.802601    Angstroms  -12.64
    c             20.145149     21.351813     1.206664    Angstroms    5.99
    alpha         90.000000     97.019219     7.019219    Degrees      7.80
    beta          90.000000     92.130593     2.130593    Degrees      2.37
    gamma         90.000000     89.999521    -0.000479    Degrees     -0.00
      1 x          0.000045      0.000045     0.000000    Fractional   0.00
      1 y          0.729510      0.729510     0.000000    Fractional   0.00
      1 z          0.162866      0.162866     0.000000    Fractional   0.00
      2 x          0.500035      0.494797     0.005238    Fractional   1.05
      2 y          0.090741      0.108640     0.017898    Fractional  19.72
      2 z          0.153282      0.137673     0.015609    Fractional  10.18
      3 x          0.000046      0.011487     0.011440    Fractional*******
      3 y          0.338819      0.315774     0.023045    Fractional   6.80
      3 z          0.231585      0.217794     0.013790    Fractional   5.95
      4 x          0.500027      0.483358     0.016668    Fractional   3.33
      4 y          0.481471      0.522383     0.040912    Fractional   8.50
      4 z          0.084611      0.082743     0.001867    Fractional   2.21
      5 x          0.500048      0.516976     0.016929    Fractional   3.39
      5 y          0.830266      0.856274     0.026009    Fractional   3.13
      5 z          0.260738      0.244158     0.016580    Fractional   6.36
      6 x          0.000025      0.977865     0.022160    Fractional   2.22
      6 y          0.989864      0.981882     0.007982    Fractional   0.81
      6 z          0.055419      0.056381     0.000961    Fractional   1.73
--------------------------------------------------------------------------------



  Elastic Constant Matrix: (Units=GPa)

-------------------------------------------------------------------------------
  Indices      1         2         3         4         5         6    
-------------------------------------------------------------------------------
       1     55.0820   10.1864    0.0645   -0.6844   -1.0073   -0.0647
       2     10.1864   85.5569    0.3905   -5.7562   -0.1813   -0.0865
       3      0.0645    0.3905    0.0017   -0.0273   -0.0045    0.0497
       4     -0.6844   -5.7562   -0.0273    0.3944    0.0373   -0.3665
       5     -1.0073   -0.1813   -0.0045    0.0373    0.1103   -1.3629
       6     -0.0647   -0.0865    0.0497   -0.3665   -1.3629   20.2698
-------------------------------------------------------------------------------


  Elastic Compliance Matrix: (Units=1/GPa)

-------------------------------------------------------------------------------
  Indices      1         2         3         4         5         6    
-------------------------------------------------------------------------------
       1   18.508222-16.223271 -3.724382******************** 63.320707
       2  -16.223271 27.996129-31.303379413.714597**********-51.798301
       3   -3.724382-31.303379******************************-22.169165
       4  **********413.714597****************************************
       5  ************************************************************
       6   63.320707-51.798301-22.169165********************217.924784
-------------------------------------------------------------------------------

  Mechanical properties :

-------------------------------------------------------------------------------
  Convention :                    Reuss         Voigt         Hill
-------------------------------------------------------------------------------
  Bulk  Modulus (GPa)     =      -0.00023      17.99149       8.99563
  Shear Modulus (GPa)     =       0.00009      12.82151       6.41080
-------------------------------------------------------------------------------
  Velocity S-wave (km/s)  =       0.00588       2.21875       1.56890
  Velocity P-wave (km/s)  =       0.00652       3.67037       2.59534
-------------------------------------------------------------------------------
  Compressibility (1/GPa) = *************
-------------------------------------------------------------------------------
  Stress axis :                     x             y             z
-------------------------------------------------------------------------------
  Youngs Moduli (GPa)     =       0.05403       0.03572      -0.00023
-------------------------------------------------------------------------------
  Poissons Ratio (x)      =                     0.57948      -0.00087
  Poissons Ratio (y)      =       0.87654                    -0.00732
  Poissons Ratio (z)      =       0.20123       1.11813
-------------------------------------------------------------------------------


  Piezoelectric Strain Matrix: (Units=C/m**2)

-------------------------------------------------------------------------------
  Indices      1         2         3         4         5         6    
-------------------------------------------------------------------------------
       x     0.00000   0.00000   0.00000   0.00000   0.00000   0.00000
       y     0.00000   0.00000   0.00000   0.00000   0.00000   0.00000
       z     0.00000   0.00000   0.00000   0.00000   0.00000   0.00000
-------------------------------------------------------------------------------


  Piezoelectric Stress Matrix: (Units=10**-11 C/N)

-------------------------------------------------------------------------------
  Indices      1         2         3         4         5         6    
-------------------------------------------------------------------------------
       x     0.00000   0.00000   0.00000   0.00000   0.00000   0.00000
       y     0.00000   0.00000   0.00000   0.00000   0.00000   0.00000
       z     0.00000   0.00000   0.00000   0.00000   0.00000   0.00000
-------------------------------------------------------------------------------


  Static dielectric constant tensor : 

-------------------------------------------------------------------------------
              x         y         z
-------------------------------------------------------------------------------
       x     1.00000   0.00000   0.00000
       y     0.00000   1.00000   0.00000
       z     0.00000   0.00000   1.00000
--------------------------------------------------------------------------------

  Static refractive indices : 

-------------------------------------------------------------------------------
    1 =    1.00000      2 =    1.00000      3 =    1.00000
-------------------------------------------------------------------------------


  Phonon Calculation : 

  K direction for n-a correction at gamma =  1.00000  1.00000  1.00000

  Number of k points for this configuration =      154

--------------------------------------------------------------------------------
  Phonon properties (per mole of unit cells): Temperature =      0.000 K
--------------------------------------------------------------------------------
  Zero point energy            =        0.168686 eV
--------------------------------------------------------------------------------

  Phonon density of states : 

--------------------------------------------------------------------------------
 Frequency (cm-1) Density of States                                             
--------------------------------------------------------------------------------
    0.00000 |                                                              0.000
    5.30191 |                                                              0.000
   10.60383 |*******                                                       0.009
   15.90574 |                                                              0.000
   21.20766 |                                                              0.000
   26.50957 |*******                                                       0.009
   31.81148 |*******                                                       0.009
   37.11340 |                                                              0.000
   42.41531 |                                                              0.000
   47.71723 |**************                                                0.018
   53.01914 |***********                                                   0.013
   58.32106 |***********                                                   0.013
   63.62297 |                                                              0.000
   68.92488 |***********                                                   0.013
   74.22680 |**********************                                        0.027
   79.52871 |**************************                                    0.031
   84.83063 |**********************                                        0.027
   90.13254 |**********************                                        0.027
   95.43445 |********************************************                  0.053
  100.73637 |*************************************                         0.044
  106.03828 |*********************************                             0.040
  111.34020 |******************                                            0.022
  116.64211 |*****************************************                     0.049
  121.94403 |************************************************************  0.071
  127.24594 |******************                                            0.022
  132.54785 |**********************                                        0.027
  137.84977 |**********************                                        0.027
  143.15168 |**************                                                0.018
  148.45360 |                                                              0.000
  153.75551 |*********************************************                 0.053
  159.05742 |                                                              0.000
  164.35934 |***                                                           0.004
  169.66125 |*******                                                       0.009
  174.96317 |                                                              0.000
  180.26508 |******************                                            0.022
  185.56700 |***********                                                   0.013
  190.86891 |******************                                            0.022
  196.17082 |*********************************                             0.040
  201.47274 |**********************                                        0.027
  206.77465 |**********************                                        0.027
  212.07657 |******************                                            0.022
  217.37848 |*********************************                             0.040
  222.68039 |**************************                                    0.031
  227.98231 |*******                                                       0.009
  233.28422 |                                                              0.000
  238.58614 |                                                              0.000
  243.88805 |                                                              0.000
  249.18996 |                                                              0.000
  254.49188 |                                                              0.000
  259.79379 |                                                              0.000
  265.09571 |                                                              0.000
  270.39762 |                                                              0.000
  275.69954 |                                                              0.000
  281.00145 |                                                              0.000
  286.30336 |***                                                           0.004
  291.60528 |                                                              0.000
  296.90719 |***                                                           0.004
  302.20911 |*******                                                       0.009
  307.51102 |***********                                                   0.013
  312.81293 |                                                              0.000
  318.11485 |**********************                                        0.027
  323.41676 |**************                                                0.018
  328.71868 |**************                                                0.018
  334.02059 |**************                                                0.018
--------------------------------------------------------------------------------




  Phonon density of states written as phonon.dens                   



  Phonon dispersion curves : 

--------------------------------------------------------------------------------
  Section number =   1
--------------------------------------------------------------------------------
  Frequency (cm-1) Phonon dispersion                                            
--------------------------------------------------------------------------------
   337.02   |*********************                                       
   322.98   |**********           ********************************       
   308.93   |          ********************                       *******
   294.89   |                             ***************                
   280.85   |                                            ****************
   266.81   |                                                            
   252.76   |                                                            
   238.72   |                                                            
   224.68   |                                                            
   210.64   |************************************************************
   196.59   |************************************************************
   182.55   |*****************************************************       
   168.51   |                       ********************          *******
   154.47   |          **************                                    
   140.42   |**********                            **********************
   126.38   |**************************************                      
   112.34   |************************************************************
    98.30   |************************************************************
    84.25   |************************************************************
    70.21   |*******************************************         ********
    56.17   |                    ********              ******************
    42.13   |               ******          ************     ************
    28.08   |          *****     ***********    **************           
    14.04   |     ****************  *************                        
     0.00   | ***********************                                    
--------------------------------------------------------------------------------


  Phonon dispersion written as phonon.disp                   

  Time to end of optimisation =       0.1300 seconds


  Peak dynamic memory used =       0.53 MB 


  Timing analysis for GULP :

--------------------------------------------------------------------------------
  Task / Subroutine                                          Time (Seconds)
--------------------------------------------------------------------------------
  Calculation of real space energy and derivatives                0.0384
  Calculation of three-body energy and derivatives                0.0352
  Calculation of phonons                                          0.0785
  Calculation of scattering                                       0.0000
  Calculation of matrix inversion                                 0.0005
  Disk read/write operations to scratch files                     0.0015
  Global summation overhead                                       0.0009
--------------------------------------------------------------------------------
  Total CPU time                                                  0.1302
--------------------------------------------------------------------------------


  Job Finished at 17:23.38 24th September  2018                               

